Program Version,EnergyPlus, Version 26.1.0-6f2e40d102, YMD=2026.06.09 15:14
1,5,Environment Title[],Latitude[deg],Longitude[deg],Time Zone[],Elevation[m]
2,8,Day of Simulation[],Month[],Day of Month[],DST Indicator[1=yes 0=no],Hour[],StartMinute[],EndMinute[],DayType
3,5,Cumulative Day of Simulation[],Month[],Day of Month[],DST Indicator[1=yes 0=no],DayType  ! When Daily Meters Requested
4,2,Cumulative Days of Simulation[],Month[]  ! When Monthly Meters Requested
5,1,Cumulative Days of Simulation[] ! When Run Period Meters Requested
6,1,Calendar Year of Simulation[] ! When Annual Meters Requested
10,1,Electricity:Facility [J] !Hourly
14525,1,ElectricityNet:Facility [J] !Hourly
16301,1,NaturalGas:Facility [J] !Hourly
58,1,InteriorLights:Electricity [J] !Hourly
4475,1,InteriorEquipment:Electricity [J] !Hourly
End of Data Dictionary
1,RUNPERIOD 1,  28.57,  77.10,   5.50, 236.80
2,1, 1, 1, 0, 1, 0.00,60.00,Sunday
10,158298140.9946832
58,11656115.239317864
4475,79472635.82437395
14525,158298140.99468425
16301,29404584.0
2,1, 1, 1, 0, 2, 0.00,60.00,Sunday
10,148721783.08298028
58,11656115.239317864
4475,72776509.29434878
14525,148721783.08298126
16301,29404584.0
2,1, 1, 1, 0, 3, 0.00,60.00,Sunday
10,142171474.42089388
58,11656115.239317864
4475,69428446.02933633
14525,142171474.42089486
16301,29404584.0
2,1, 1, 1, 0, 4, 0.00,60.00,Sunday
10,136801074.96360695
58,11656115.239317864
4475,67754414.39683005
14525,136801074.96360794
16301,29404584.0
2,1, 1, 1, 0, 5, 0.00,60.00,Sunday
10,143390124.59772816
58,16975375.727318894
4475,71432354.39683005
14525,143390124.59772912
16301,29404584.0
2,1, 1, 1, 0, 6, 0.00,60.00,Sunday
10,169255542.95693928
58,26284081.875110786
4475,87158392.55936149
14525,169255542.95694023
16301,29404584.0
2,1, 1, 1, 0, 7, 0.00,60.00,Sunday
10,206532777.35102493
58,27613896.938352972
4475,120284500.51693058
14525,206532777.35102597
16301,235845975.75246602
2,1, 1, 1, 0, 8, 0.00,60.00,Sunday
10,221454076.07781062
58,26284081.875110786
4475,146054728.47449982
14525,221454076.07781154
16301,278390381.3709415
2,1, 1, 1, 0, 9, 0.00,60.00,Sunday
10,228920261.18612635
58,16975375.727318894
4475,147728760.107006
14525,228920261.18612725
16301,273451997.9312524
2,1, 1, 1, 0,10, 0.00,60.00,Sunday
10,244355698.2607247
58,14315745.365802372
4475,138368971.73951268
14525,244355698.2607257
16301,226556108.45711237
2,1, 1, 1, 0,11, 0.00,60.00,Sunday
10,259188212.03406867
58,14315745.365802372
4475,127005275.00452524
14525,259188212.03406972
16301,219229614.70818126
2,1, 1, 1, 0,12, 0.00,60.00,Sunday
10,192961327.09028623
58,14315745.365802372
4475,128679306.63703147
14525,192961327.0902872
16301,177343495.6172243
2,1, 1, 1, 0,13, 0.00,60.00,Sunday
10,156542023.88292187
58,14315745.365802372
4475,127005275.00452524
14525,156542023.88292286
16301,143701014.50338593
2,1, 1, 1, 0,14, 0.00,60.00,Sunday
10,237784444.27405468
58,14315745.365802372
4475,121983180.10700601
14525,237784444.2740556
16301,140911267.50659716
2,1, 1, 1, 0,15, 0.00,60.00,Sunday
10,259268238.60151738
58,14315745.365802372
4475,120309148.4744998
14525,259268238.6015184
16301,110994682.61655474
2,1, 1, 1, 0,16, 0.00,60.00,Sunday
10,238074533.94401184
58,18305191.025593143
4475,125331243.3720189
14525,238074533.94401288
16301,140819732.22305846
2,1, 1, 1, 0,17, 0.00,60.00,Sunday
10,260802466.91349402
58,27613896.938352972
4475,160131382.9620943
14525,260802466.913495
16301,144528277.30272323
2,1, 1, 1, 0,18, 0.00,60.00,Sunday
10,313607187.2231138
58,35592787.787870474
4475,204645835.6122203
14525,313607187.223114
16301,216368359.2452268
2,1, 1, 1, 0,19, 0.00,60.00,Sunday
10,293004098.9391485
58,44901493.93566237
4475,204645835.6122203
14525,293004098.93914944
16301,228201936.74076462
2,1, 1, 1, 0,20, 0.00,60.00,Sunday
10,280250947.3161406
58,51550569.72193773
4475,185571734.18467608
14525,280250947.31614155
16301,224627807.09107992
2,1, 1, 1, 0,21, 0.00,60.00,Sunday
10,367270464.8029187
58,51550569.72193773
4475,178875607.65465096
14525,367270464.80291945
16301,218376088.6577015
2,1, 1, 1, 0,22, 0.00,60.00,Sunday
10,323801529.6744542
58,38252418.149386905
4475,164823601.124626
14525,323801529.67445517
16301,177324017.54815644
2,1, 1, 1, 0,23, 0.00,60.00,Sunday
10,257857684.64803982
58,24954266.576836366
4475,134031278.26953766
14525,257857684.64804083
16301,143743123.53990388
2,1, 1, 1, 0,24, 0.00,60.00,Sunday
10,202839268.00789183
58,15645560.66407668
4475,104912987.04695597
14525,202839268.00789285
16301,81487982.26774237
2,2, 1, 2, 0, 1, 0.00,60.00,Holiday
10,167695115.3696127
58,11656115.239317864
4475,79472635.82437395
14525,167695115.36961368
16301,29404584.0
2,2, 1, 2, 0, 2, 0.00,60.00,Holiday
10,157323468.87049338
58,11656115.239317864
4475,72776509.29434878
14525,157323468.87049437
16301,29404584.0
2,2, 1, 2, 0, 3, 0.00,60.00,Holiday
10,151506142.05965763
58,11656115.239317864
4475,69428446.02933633
14525,151506142.0596586
16301,29404584.0
2,2, 1, 2, 0, 4, 0.00,60.00,Holiday
10,147286794.6131998
58,11656115.239317864
4475,67754414.39683005
14525,147286794.61320072
16301,29404584.0
2,2, 1, 2, 0, 5, 0.00,60.00,Holiday
10,153159984.44328457
58,16975375.727318894
4475,71432354.39683005
14525,153159984.44328558
16301,29404584.0
2,2, 1, 2, 0, 6, 0.00,60.00,Holiday
10,177853402.64834607
58,26284081.875110786
4475,87158392.55936149
14525,177853402.6483471
16301,29404584.0
2,2, 1, 2, 0, 7, 0.00,60.00,Holiday
10,216730634.38373032
58,27613896.938352972
4475,120284500.51693058
14525,216730634.38373128
16301,235692144.27234077
2,2, 1, 2, 0, 8, 0.00,60.00,Holiday
10,233483552.95207906
58,26284081.875110786
4475,146054728.47449982
14525,233483552.95208007
16301,278489983.3384282
2,2, 1, 2, 0, 9, 0.00,60.00,Holiday
10,236648445.8199724
58,16975375.727318894
4475,147728760.107006
14525,236648445.81997335
16301,273638180.73502254
2,2, 1, 2, 0,10, 0.00,60.00,Holiday
10,247121851.0942226
58,14315745.365802372
4475,138368971.73951268
14525,247121851.09422356
16301,239506745.76873073
2,2, 1, 2, 0,11, 0.00,60.00,Holiday
10,243691373.31491455
58,14315745.365802372
4475,127005275.00452524
14525,243691373.3149156
16301,207082969.39341444
2,2, 1, 2, 0,12, 0.00,60.00,Holiday
10,158246449.21108654
58,14315745.365802372
4475,128679306.63703147
14525,158246449.21108755
16301,177503827.0121141
2,2, 1, 2, 0,13, 0.00,60.00,Holiday
10,214250450.1963508
58,14315745.365802372
4475,127005275.00452524
14525,214250450.19635177
16301,153474883.52958545
2,2, 1, 2, 0,14, 0.00,60.00,Holiday
10,264566910.5233354
58,14315745.365802372
4475,121983180.10700601
14525,264566910.52333632
16301,131519120.76116346
2,2, 1, 2, 0,15, 0.00,60.00,Holiday
10,262566153.60262385
58,14315745.365802372
4475,120309148.4744998
14525,262566153.60262477
16301,111074470.10260057
2,2, 1, 2, 0,16, 0.00,60.00,Holiday
10,273087806.24227476
58,18305191.025593143
4475,125331243.3720189
14525,273087806.2422757
16301,140858774.56428748
2,2, 1, 2, 0,17, 0.00,60.00,Holiday
10,314718359.450618
58,27613896.938352972
4475,160131382.9620943
14525,314718359.4506189
16301,162969280.75521594
2,2, 1, 2, 0,18, 0.00,60.00,Holiday
10,294078965.4015179
58,35592787.787870474
4475,204645835.6122203
14525,294078965.40151834
16301,196526995.56081292
2,2, 1, 2, 0,19, 0.00,60.00,Holiday
10,336130078.69114155
58,44901493.93566237
4475,204645835.6122203
14525,336130078.69114053
16301,256743642.72389418
2,2, 1, 2, 0,20, 0.00,60.00,Holiday
10,280250947.3161406
58,51550569.72193773
4475,185571734.18467608
14525,280250947.31614155
16301,229226614.99728376
2,2, 1, 2, 0,21, 0.00,60.00,Holiday
10,312325212.4940248
58,51550569.72193773
4475,178875607.65465096
14525,312325212.4940251
16301,218072658.85149536
2,2, 1, 2, 0,22, 0.00,60.00,Holiday
10,336738669.4361155
58,38252418.149386905
4475,164823601.124626
14525,336738669.4361164
16301,155464425.80000633
2,2, 1, 2, 0,23, 0.00,60.00,Holiday
10,283806059.4388356
58,24954266.576836366
4475,134031278.26953766
14525,283806059.4388365
16301,165231006.59388798
2,2, 1, 2, 0,24, 0.00,60.00,Holiday
10,227893181.0876476
58,15645560.66407668
4475,104912987.04695597
14525,227893181.08764863
16301,81335069.23193099
2,3, 1, 3, 0, 1, 0.00,60.00,Tuesday
10,183214042.26669708
58,11656115.239317864
4475,79472635.82437395
14525,183214042.26669812
16301,29404584.0
2,3, 1, 3, 0, 2, 0.00,60.00,Tuesday
10,166720701.38977584
58,11656115.239317864
4475,72776509.29434878
14525,166720701.38977683
16301,29404584.0
2,3, 1, 3, 0, 3, 0.00,60.00,Tuesday
10,156625982.7275081
58,11656115.239317864
4475,69428446.02933633
14525,156625982.72750917
16301,29404584.0
2,3, 1, 3, 0, 4, 0.00,60.00,Tuesday
10,147707562.61452416
58,11656115.239317864
4475,67754414.39683005
14525,147707562.61452514
16301,29404584.0
2,3, 1, 3, 0, 5, 0.00,60.00,Tuesday
10,152614392.74460346
58,16975375.727318894
4475,71432354.39683005
14525,152614392.74460444
16301,29404584.0
2,3, 1, 3, 0, 6, 0.00,60.00,Tuesday
10,178748608.13403547
58,26284081.875110786
4475,87158392.55936149
14525,178748608.13403642
16301,29404584.0
2,3, 1, 3, 0, 7, 0.00,60.00,Tuesday
10,217952009.476557
58,27613896.938352972
4475,120284500.51693058
14525,217952009.47655797
16301,235785979.21165344
2,3, 1, 3, 0, 8, 0.00,60.00,Tuesday
10,229321367.7305982
58,26284081.875110786
4475,146293383.9335011
14525,229321367.73059922
16301,278678267.97139764
2,3, 1, 3, 0, 9, 0.00,60.00,Tuesday
10,235234268.34593266
58,18466671.234855436
4475,149227177.34515285
14525,235234268.34593362
16301,273781792.58355093
2,3, 1, 3, 0,10, 0.00,60.00,Tuesday
10,246475785.63054806
58,15807040.873338813
4475,139867388.97765952
14525,246475785.63054913
16301,226785751.3241102
2,3, 1, 3, 0,11, 0.00,60.00,Tuesday
10,244971249.92381147
58,15807040.873338813
4475,128503692.2426721
14525,244971249.92381257
16301,219437992.3748073
2,3, 1, 3, 0,12, 0.00,60.00,Tuesday
10,161263871.45437017
58,15807040.873338813
4475,130177723.87517832
14525,161263871.45437115
16301,177430497.63717687
2,3, 1, 3, 0,13, 0.00,60.00,Tuesday
10,158528772.97365025
58,15590730.651414875
4475,128385990.86668785
14525,158528772.97365123
16301,143808314.93812475
2,3, 1, 3, 0,14, 0.00,60.00,Tuesday
10,250233813.4294925
58,15807040.873338813
4475,123481597.34515285
14525,250233813.42949343
16301,140972606.74556616
2,3, 1, 3, 0,15, 0.00,60.00,Tuesday
10,231429141.46952355
58,15807040.873338813
4475,121807565.71264665
14525,231429141.46952453
16301,111091397.4166309
2,3, 1, 3, 0,16, 0.00,60.00,Tuesday
10,227414219.8295111
58,19796486.53312959
4475,126829660.61016576
14525,227414219.82951212
16301,140876394.63450098
2,3, 1, 3, 0,17, 0.00,60.00,Tuesday
10,235389154.29174754
58,29105192.44588942
4475,161629800.20024115
14525,235389154.29174855
16301,144651408.28817958
2,3, 1, 3, 0,18, 0.00,60.00,Tuesday
10,293929194.7283965
58,35592787.787870474
4475,204884491.0712216
14525,293929194.7283974
16301,216324862.5709735
2,3, 1, 3, 0,19, 0.00,60.00,Tuesday
10,293004098.9391485
58,44901493.93566237
4475,204645835.6122203
14525,293004098.93914944
16301,228327561.13836938
2,3, 1, 3, 0,20, 0.00,60.00,Tuesday
10,375093762.04973364
58,51550569.72193773
4475,185571734.18467608
14525,375093762.0497335
16301,251849145.69235292
2,3, 1, 3, 0,21, 0.00,60.00,Tuesday
10,355139082.8511101
58,51550569.72193773
4475,178875607.65465096
14525,355139082.85111123
16301,193119024.18412983
2,3, 1, 3, 0,22, 0.00,60.00,Tuesday
10,317576681.0247003
58,38252418.149386905
4475,164823601.124626
14525,317576681.0247012
16301,176788972.5279404
2,3, 1, 3, 0,23, 0.00,60.00,Tuesday
10,258408625.2693625
58,24954266.576836366
4475,134031278.26953766
14525,258408625.26936358
16301,164587445.04200026
2,3, 1, 3, 0,24, 0.00,60.00,Tuesday
10,207667531.92791325
58,15645560.66407668
4475,104912987.04695597
14525,207667531.9279143
16301,88551970.60944334
2,4, 1, 4, 0, 1, 0.00,60.00,Wednesday
10,170316350.35646144
58,11656115.239317864
4475,79472635.82437395
14525,170316350.35646248
16301,29404584.0
2,4, 1, 4, 0, 2, 0.00,60.00,Wednesday
10,154722137.60364157
58,11656115.239317864
4475,72776509.29434878
14525,154722137.60364258
16301,29404584.0
2,4, 1, 4, 0, 3, 0.00,60.00,Wednesday
10,144150985.56644276
58,11656115.239317864
4475,69428446.02933633
14525,144150985.5664437
16301,29404584.0
2,4, 1, 4, 0, 4, 0.00,60.00,Wednesday
10,139312054.47584826
58,11656115.239317864
4475,67754414.39683005
14525,139312054.47584924
16301,29404584.0
2,4, 1, 4, 0, 5, 0.00,60.00,Wednesday
10,146642890.29276246
58,16975375.727318894
4475,71432354.39683005
14525,146642890.2927634
16301,29404584.0
2,4, 1, 4, 0, 6, 0.00,60.00,Wednesday
10,170778822.77437484
58,26284081.875110786
4475,87158392.55936149
14525,170778822.7743758
16301,29404584.0
2,4, 1, 4, 0, 7, 0.00,60.00,Wednesday
10,206277113.36111474
58,27613896.938352972
4475,120284500.51693058
14525,206277113.36111575
16301,236015475.39374125
2,4, 1, 4, 0, 8, 0.00,60.00,Wednesday
10,220257020.96017143
58,26284081.875110786
4475,146293383.9335011
14525,220257020.9601724
16301,278858001.37047184
2,4, 1, 4, 0, 9, 0.00,60.00,Wednesday
10,227062866.76218873
58,18466671.234855436
4475,149227177.34515285
14525,227062866.76218972
16301,273921730.4097529
2,4, 1, 4, 0,10, 0.00,60.00,Wednesday
10,238778849.80498767
58,15807040.873338813
4475,139867388.97765952
14525,238778849.8049887
16301,226857239.21781433
2,4, 1, 4, 0,11, 0.00,60.00,Wednesday
10,257111922.700292
58,15807040.873338813
4475,128503692.2426721
14525,257111922.70029306
16301,219512517.18918383
2,4, 1, 4, 0,12, 0.00,60.00,Wednesday
10,217492053.14161208
58,15807040.873338813
4475,130177723.87517832
14525,217492053.14161307
16301,177479482.21752933
2,4, 1, 4, 0,13, 0.00,60.00,Wednesday
10,209405602.00852656
58,15590730.651414875
4475,128385990.86668785
14525,209405602.00852752
16301,143828188.52934366
2,4, 1, 4, 0,14, 0.00,60.00,Wednesday
10,247682874.2223718
58,15807040.873338813
4475,123481597.34515285
14525,247682874.22237283
16301,140996890.49895096
2,4, 1, 4, 0,15, 0.00,60.00,Wednesday
10,180282229.2347961
58,15807040.873338813
4475,121807565.71264665
14525,180282229.23479718
16301,111094109.03687069
2,4, 1, 4, 0,16, 0.00,60.00,Wednesday
10,161844114.43730605
58,19796486.53312959
4475,126829660.61016576
14525,161844114.43730706
16301,140901564.4785633
2,4, 1, 4, 0,17, 0.00,60.00,Wednesday
10,206355239.49850705
58,29105192.44588942
4475,161629800.20024115
14525,206355239.49850804
16301,144675281.19552916
2,4, 1, 4, 0,18, 0.00,60.00,Wednesday
10,270432951.82290447
58,35592787.787870474
4475,204884491.0712216
14525,270432951.8229054
16301,216402060.67504972
2,4, 1, 4, 0,19, 0.00,60.00,Wednesday
10,357416414.0924306
58,44901493.93566237
4475,204645835.6122203
14525,357416414.0924286
16301,228442019.62964147
2,4, 1, 4, 0,20, 0.00,60.00,Wednesday
10,360707430.7152448
58,51550569.72193773
4475,185571734.18467608
14525,360707430.71524596
16301,249382042.60541576
2,4, 1, 4, 0,21, 0.00,60.00,Wednesday
10,347262051.89786994
58,51550569.72193773
4475,178875607.65465096
14525,347262051.897871
16301,194892986.25806183
2,4, 1, 4, 0,22, 0.00,60.00,Wednesday
10,312153878.03470385
58,38252418.149386905
4475,164823601.124626
14525,312153878.0347051
16301,177583735.53765392
2,4, 1, 4, 0,23, 0.00,60.00,Wednesday
10,246800191.63258225
58,24954266.576836366
4475,134031278.26953766
14525,246800191.63258323
16301,164277009.9945296
2,4, 1, 4, 0,24, 0.00,60.00,Wednesday
10,190222803.73814762
58,15645560.66407668
4475,104912987.04695597
14525,190222803.73814866
16301,88875939.2979595
2,5, 1, 5, 0, 1, 0.00,60.00,Thursday
10,151439806.7417482
58,11656115.239317864
4475,79472635.82437395
14525,151439806.74174917
16301,29404584.0
2,5, 1, 5, 0, 2, 0.00,60.00,Thursday
10,140441232.19259882
58,11656115.239317864
4475,72776509.29434878
14525,140441232.19259983
16301,29404584.0
2,5, 1, 5, 0, 3, 0.00,60.00,Thursday
10,134740801.56530774
58,11656115.239317864
4475,69428446.02933633
14525,134740801.56530866
16301,29404584.0
2,5, 1, 5, 0, 4, 0.00,60.00,Thursday
10,131601684.13135204
58,11656115.239317864
4475,67754414.39683005
14525,131601684.131353
16301,29404584.0
2,5, 1, 5, 0, 5, 0.00,60.00,Thursday
10,139322897.9312415
58,16975375.727318894
4475,71432354.39683005
14525,139322897.93124253
16301,29404584.0
2,5, 1, 5, 0, 6, 0.00,60.00,Thursday
10,164901315.81062067
58,26284081.875110786
4475,87158392.55936149
14525,164901315.81062165
16301,29404584.0
2,5, 1, 5, 0, 7, 0.00,60.00,Thursday
10,202331545.48746097
58,27613896.938352972
4475,120284500.51693058
14525,202331545.48746195
16301,236110983.8500557
2,5, 1, 5, 0, 8, 0.00,60.00,Thursday
10,216573480.42359236
58,26284081.875110786
4475,146293383.9335011
14525,216573480.42359334
16301,279011100.2272985
2,5, 1, 5, 0, 9, 0.00,60.00,Thursday
10,222607598.18834195
58,18466671.234855436
4475,149227177.34515285
14525,222607598.18834296
16301,274069730.7289176
2,5, 1, 5, 0,10, 0.00,60.00,Thursday
10,236555183.02538377
58,15807040.873338813
4475,139867388.97765952
14525,236555183.02538484
16301,226959728.84765851
2,5, 1, 5, 0,11, 0.00,60.00,Thursday
10,249230879.97533974
58,15807040.873338813
4475,128503692.2426721
14525,249230879.9753408
16301,219597051.42910597
2,5, 1, 5, 0,12, 0.00,60.00,Thursday
10,200827095.30631426
58,15807040.873338813
4475,130177723.87517832
14525,200827095.3063153
16301,177524272.4309684
2,5, 1, 5, 0,13, 0.00,60.00,Thursday
10,158528772.97365025
58,15590730.651414875
4475,128385990.86668785
14525,158528772.97365123
16301,143866379.21634176
2,5, 1, 5, 0,14, 0.00,60.00,Thursday
10,154447467.15970892
58,15807040.873338813
4475,123481597.34515285
14525,154447467.1597099
16301,141024053.21968532
2,5, 1, 5, 0,15, 0.00,60.00,Thursday
10,205234873.81017178
58,15807040.873338813
4475,121807565.71264665
14525,205234873.8101729
16301,111123341.26447193
2,5, 1, 5, 0,16, 0.00,60.00,Thursday
10,208852151.4391253
58,19796486.53312959
4475,126829660.61016576
14525,208852151.43912634
16301,140927892.66952655
2,5, 1, 5, 0,17, 0.00,60.00,Thursday
10,248684672.18634343
58,29105192.44588942
4475,161629800.20024115
14525,248684672.18634444
16301,144719363.627821
2,5, 1, 5, 0,18, 0.00,60.00,Thursday
10,283984664.9822957
58,35592787.787870474
4475,204884491.0712216
14525,283984664.9822967
16301,216473056.27021176
2,5, 1, 5, 0,19, 0.00,60.00,Thursday
10,293004098.9391485
58,44901493.93566237
4475,204645835.6122203
14525,293004098.93914944
16301,232581167.07745036
2,5, 1, 5, 0,20, 0.00,60.00,Thursday
10,310026907.3217715
58,51550569.72193773
4475,185571734.18467608
14525,310026907.3217718
16301,253605317.41454887
2,5, 1, 5, 0,21, 0.00,60.00,Thursday
10,351487946.73112524
58,51550569.72193773
4475,178875607.65465096
14525,351487946.7311263
16301,196162624.33072224
2,5, 1, 5, 0,22, 0.00,60.00,Thursday
10,319758368.15613246
58,38252418.149386905
4475,164823601.124626
14525,319758368.1561334
16301,169061632.21327135
2,5, 1, 5, 0,23, 0.00,60.00,Thursday
10,260833444.65193957
58,24954266.576836366
4475,134031278.26953766
14525,260833444.65194064
16301,172484031.13579684
2,5, 1, 5, 0,24, 0.00,60.00,Thursday
10,209528858.2341052
58,15645560.66407668
4475,104912987.04695597
14525,209528858.23410618
16301,81391611.75309637
2,6, 1, 6, 0, 1, 0.00,60.00,Friday
10,169397504.79737955
58,11656115.239317864
4475,79472635.82437395
14525,169397504.79738048
16301,29404584.0
2,6, 1, 6, 0, 2, 0.00,60.00,Friday
10,156486060.09405756
58,11656115.239317864
4475,72776509.29434878
14525,156486060.09405857
16301,29404584.0
2,6, 1, 6, 0, 3, 0.00,60.00,Friday
10,148877206.7267991
58,11656115.239317864
4475,69428446.02933633
14525,148877206.72680005
16301,29404584.0
2,6, 1, 6, 0, 4, 0.00,60.00,Friday
10,143517605.0763434
58,11656115.239317864
4475,67754414.39683005
14525,143517605.07634437
16301,29404584.0
2,6, 1, 6, 0, 5, 0.00,60.00,Friday
10,150176588.61133403
58,16975375.727318894
4475,71432354.39683005
14525,150176588.61133498
16301,29404584.0
2,6, 1, 6, 0, 6, 0.00,60.00,Friday
10,175381596.05001143
58,26284081.875110786
4475,87158392.55936149
14525,175381596.0500124
16301,29404584.0
2,6, 1, 6, 0, 7, 0.00,60.00,Friday
10,214880575.92762983
58,27613896.938352972
4475,120284500.51693058
14525,214880575.92763084
16301,236131421.71001637
2,6, 1, 6, 0, 8, 0.00,60.00,Friday
10,218521539.65147847
58,26284081.875110786
4475,146293383.9335011
14525,218521539.65147942
16301,279150397.9848751
2,6, 1, 6, 0, 9, 0.00,60.00,Friday
10,216521747.93321556
58,18466671.234855436
4475,149227177.34515285
14525,216521747.93321654
16301,274210250.8145858
2,6, 1, 6, 0,10, 0.00,60.00,Friday
10,229289859.1667333
58,15807040.873338813
4475,139867388.97765952
14525,229289859.1667343
16301,227075619.44600278
2,6, 1, 6, 0,11, 0.00,60.00,Friday
10,242927009.7134627
58,15807040.873338813
4475,128503692.2426721
14525,242927009.71346378
16301,219679715.0975441
2,6, 1, 6, 0,12, 0.00,60.00,Friday
10,254237210.3481181
58,15807040.873338813
4475,130177723.87517832
14525,254237210.34811914
16301,177572794.7082253
2,6, 1, 6, 0,13, 0.00,60.00,Friday
10,172170372.79854944
58,15590730.651414875
4475,128385990.86668785
14525,172170372.7985505
16301,143910913.37513623
2,6, 1, 6, 0,14, 0.00,60.00,Friday
10,154447467.15970892
58,15807040.873338813
4475,123481597.34515285
14525,154447467.1597099
16301,141052093.09833
2,6, 1, 6, 0,15, 0.00,60.00,Friday
10,152050692.25367457
58,15807040.873338813
4475,121807565.71264665
14525,152050692.25367555
16301,111131218.23962185
2,6, 1, 6, 0,16, 0.00,60.00,Friday
10,161844114.43730605
58,19796486.53312959
4475,126829660.61016576
14525,161844114.43730706
16301,140954623.53285694
2,6, 1, 6, 0,17, 0.00,60.00,Friday
10,206355239.49850705
58,29105192.44588942
4475,161629800.20024115
14525,206355239.49850804
16301,144770436.84506583
2,6, 1, 6, 0,18, 0.00,60.00,Friday
10,270432951.82290447
58,35592787.787870474
4475,204884491.0712216
14525,270432951.8229054
16301,216545878.35054272
2,6, 1, 6, 0,19, 0.00,60.00,Friday
10,293004098.9391485
58,44901493.93566237
4475,204645835.6122203
14525,293004098.93914944
16301,245056069.19844937
2,6, 1, 6, 0,20, 0.00,60.00,Friday
10,301922526.3169442
58,51550569.72193773
4475,185571734.18467608
14525,301922526.31694514
16301,241510772.39732906
2,6, 1, 6, 0,21, 0.00,60.00,Friday
10,324773089.37397814
58,51550569.72193773
4475,178875607.65465096
14525,324773089.3739792
16301,211279668.73880213
2,6, 1, 6, 0,22, 0.00,60.00,Friday
10,297904807.7502731
58,38252418.149386905
4475,164823601.124626
14525,297904807.7502741
16301,159038300.80187556
2,6, 1, 6, 0,23, 0.00,60.00,Friday
10,244631637.20487964
58,24954266.576836366
4475,134031278.26953766
14525,244631637.20488065
16301,168544103.2335182
2,6, 1, 6, 0,24, 0.00,60.00,Friday
10,197601776.71734828
58,15645560.66407668
4475,104912987.04695597
14525,197601776.71734923
16301,81357608.84637132
2,7, 1, 7, 0, 1, 0.00,60.00,Saturday
10,159837250.4397019
58,11656115.239317864
4475,79472635.82437395
14525,159837250.43970293
16301,29404584.0
2,7, 1, 7, 0, 2, 0.00,60.00,Saturday
10,145128372.13733912
58,11656115.239317864
4475,72776509.29434878
14525,145128372.1373401
16301,29404584.0
2,7, 1, 7, 0, 3, 0.00,60.00,Saturday
10,138140811.88772732
58,11656115.239317864
4475,69428446.02933633
14525,138140811.88772827
16301,29404584.0
2,7, 1, 7, 0, 4, 0.00,60.00,Saturday
10,134220648.42368937
58,11656115.239317864
4475,67754414.39683005
14525,134220648.42369038
16301,29404584.0
2,7, 1, 7, 0, 5, 0.00,60.00,Saturday
10,141813053.37677944
58,16975375.727318894
4475,71432354.39683005
14525,141813053.37678042
16301,29404584.0
2,7, 1, 7, 0, 6, 0.00,60.00,Saturday
10,168871513.46378922
58,26284081.875110786
4475,87158392.55936149
14525,168871513.46379018
16301,29404584.0
2,7, 1, 7, 0, 7, 0.00,60.00,Saturday
10,207237393.4346575
58,27613896.938352972
4475,120284500.51693058
14525,207237393.43465853
16301,236243095.1187346
2,7, 1, 7, 0, 8, 0.00,60.00,Saturday
10,221356635.18777454
58,26284081.875110786
4475,146054728.47449982
14525,221356635.1877755
16301,279271432.2701367
2,7, 1, 7, 0, 9, 0.00,60.00,Saturday
10,221638976.1571894
58,16975375.727318894
4475,147728760.107006
14525,221638976.15719038
16301,274347081.06442106
2,7, 1, 7, 0,10, 0.00,60.00,Saturday
10,232364567.91965336
58,14315745.365802372
4475,138368971.73951268
14525,232364567.91965425
16301,227212736.39556542
2,7, 1, 7, 0,11, 0.00,60.00,Saturday
10,241723388.97122902
58,14315745.365802372
4475,127005275.00452524
14525,241723388.97123003
16301,219763311.1725098
2,7, 1, 7, 0,12, 0.00,60.00,Saturday
10,252428679.68124324
58,14315745.365802372
4475,128679306.63703147
14525,252428679.68124434
16301,177649379.79958278
2,7, 1, 7, 0,13, 0.00,60.00,Saturday
10,260078811.04733092
58,14315745.365802372
4475,127005275.00452524
14525,260078811.047332
16301,143960163.43660033
2,7, 1, 7, 0,14, 0.00,60.00,Saturday
10,189058278.94579774
58,14315745.365802372
4475,121983180.10700601
14525,189058278.9457987
16301,141080716.30858094
2,7, 1, 7, 0,15, 0.00,60.00,Saturday
10,149729694.22228795
58,14315745.365802372
4475,120309148.4744998
14525,149729694.22228897
16301,111159373.60574633
2,7, 1, 7, 0,16, 0.00,60.00,Saturday
10,214459959.80679804
58,18305191.025593143
4475,125331243.3720189
14525,214459959.80679905
16301,140985687.33156812
2,7, 1, 7, 0,17, 0.00,60.00,Saturday
10,226266460.85534447
58,27613896.938352972
4475,160131382.9620943
14525,226266460.85534546
16301,166239554.40192872
2,7, 1, 7, 0,18, 0.00,60.00,Saturday
10,314151760.3065455
58,35592787.787870474
4475,204645835.6122203
14525,314151760.3065456
16301,193531323.72900832
2,7, 1, 7, 0,19, 0.00,60.00,Saturday
10,293004098.9391485
58,44901493.93566237
4475,204645835.6122203
14525,293004098.93914944
16301,261940276.03652126
2,7, 1, 7, 0,20, 0.00,60.00,Saturday
10,309776661.0383915
58,51550569.72193773
4475,185571734.18467608
14525,309776661.0383917
16301,225146862.78840435
2,7, 1, 7, 0,21, 0.00,60.00,Saturday
10,350575756.507066
58,51550569.72193773
4475,178875607.65465096
14525,350575756.507067
16301,218799949.11296356
2,7, 1, 7, 0,22, 0.00,60.00,Saturday
10,317357054.56796336
58,38252418.149386905
4475,164823601.124626
14525,317357054.56796443
16301,177626476.61163664
2,7, 1, 7, 0,23, 0.00,60.00,Saturday
10,258985204.3206784
58,24954266.576836366
4475,134031278.26953766
14525,258985204.3206794
16301,143871011.99729362
2,7, 1, 7, 0,24, 0.00,60.00,Saturday
10,207463325.1924777
58,15645560.66407668
4475,104912987.04695597
14525,207463325.19247872
16301,81290075.61658522
2,8, 1, 8, 0, 1, 0.00,60.00,Sunday
10,164654096.89180338
58,11656115.239317864
4475,79472635.82437395
14525,164654096.89180437
16301,29404584.0
2,8, 1, 8, 0, 2, 0.00,60.00,Sunday
10,151495024.9926531
58,11656115.239317864
4475,72776509.29434878
14525,151495024.9926541
16301,29404584.0
2,8, 1, 8, 0, 3, 0.00,60.00,Sunday
10,147557859.5432973
58,11656115.239317864
4475,69428446.02933633
14525,147557859.54329824
16301,29404584.0
2,8, 1, 8, 0, 4, 0.00,60.00,Sunday
10,143456890.3263761
58,11656115.239317864
4475,67754414.39683005
14525,143456890.3263771
16301,29404584.0
2,8, 1, 8, 0, 5, 0.00,60.00,Sunday
10,150033889.2787822
58,16975375.727318894
4475,71432354.39683005
14525,150033889.27878314
16301,29404584.0
2,8, 1, 8, 0, 6, 0.00,60.00,Sunday
10,173355700.25258714
58,26284081.875110786
4475,87158392.55936149
14525,173355700.25258806
16301,29404584.0
2,8, 1, 8, 0, 7, 0.00,60.00,Sunday
10,208894185.95022988
58,27613896.938352972
4475,120284500.51693058
14525,208894185.95023084
16301,236362402.80805874
2,8, 1, 8, 0, 8, 0.00,60.00,Sunday
10,218634913.7820266
58,26284081.875110786
4475,146054728.47449982
14525,218634913.78202754
16301,279418683.7339053
2,8, 1, 8, 0, 9, 0.00,60.00,Sunday
10,213466747.60214448
58,16975375.727318894
4475,147728760.107006
14525,213466747.6021455
16301,274490285.8321232
2,8, 1, 8, 0,10, 0.00,60.00,Sunday
10,225557335.02462825
58,14315745.365802372
4475,138368971.73951268
14525,225557335.02462935
16301,236708300.6659621
2,8, 1, 8, 0,11, 0.00,60.00,Sunday
10,241327613.9768594
58,14315745.365802372
4475,127005275.00452524
14525,241327613.97686043
16301,210807620.75234136
2,8, 1, 8, 0,12, 0.00,60.00,Sunday
10,257981116.33226603
58,14315745.365802372
4475,128679306.63703147
14525,257981116.33226714
16301,177784767.99199277
2,8, 1, 8, 0,13, 0.00,60.00,Sunday
10,216296171.83610356
58,14315745.365802372
4475,127005275.00452524
14525,216296171.83610454
16301,166975014.77381092
2,8, 1, 8, 0,14, 0.00,60.00,Sunday
10,151431979.206544
58,14315745.365802372
4475,121983180.10700601
14525,151431979.206545
16301,118670245.4227243
2,8, 1, 8, 0,15, 0.00,60.00,Sunday
10,149729694.22228795
58,14315745.365802372
4475,120309148.4744998
14525,149729694.22228897
16301,138178419.9035122
2,8, 1, 8, 0,16, 0.00,60.00,Sunday
10,206789778.1391626
58,18305191.025593143
4475,125331243.3720189
14525,206789778.13916355
16301,113349634.5089814
2,8, 1, 8, 0,17, 0.00,60.00,Sunday
10,221315456.73518753
58,27613896.938352972
4475,160131382.9620943
14525,221315456.73518857
16301,173671509.3603078
2,8, 1, 8, 0,18, 0.00,60.00,Sunday
10,270187256.94838786
58,35592787.787870474
4475,204645835.6122203
14525,270187256.9483888
16301,190406949.33492714