Program Version,EnergyPlus, Version 26.1.0-6f2e40d102, YMD=2026.06.09 15:14
1,5,Environment Title[],Latitude[deg],Longitude[deg],Time Zone[],Elevation[m]
2,8,Day of Simulation[],Month[],Day of Month[],DST Indicator[1=yes 0=no],Hour[],StartMinute[],EndMinute[],DayType
3,5,Cumulative Day of Simulation[],Month[],Day of Month[],DST Indicator[1=yes 0=no],DayType  ! When Daily Report Variables Requested
4,2,Cumulative Days of Simulation[],Month[]  ! When Monthly Report Variables Requested
5,1,Cumulative Days of Simulation[] ! When Run Period Report Variables Requested
6,1,Calendar Year of Simulation[] ! When Annual Report Variables Requested
14572,1,Whole Building,Facility Total Electricity Demand Rate [W] !Hourly
End of Data Dictionary
1,RUNPERIOD 1,  28.57,  77.10,   5.50, 236.80
2,1, 1, 1, 0, 1, 0.00,60.00,Sunday
14572,43971.70583185673
2,1, 1, 1, 0, 2, 0.00,60.00,Sunday
14572,41311.60641193924
2,1, 1, 1, 0, 3, 0.00,60.00,Sunday
14572,39492.076228026344
2,1, 1, 1, 0, 4, 0.00,60.00,Sunday
14572,38000.2986010022
2,1, 1, 1, 0, 5, 0.00,60.00,Sunday
14572,39830.590166035865
2,1, 1, 1, 0, 6, 0.00,60.00,Sunday
14572,47015.428599150066
2,1, 1, 1, 0, 7, 0.00,60.00,Sunday
14572,57370.21593084054
2,1, 1, 1, 0, 8, 0.00,60.00,Sunday
14572,61515.02113272542
2,1, 1, 1, 0, 9, 0.00,60.00,Sunday
14572,63588.9614405909
2,1, 1, 1, 0,10, 0.00,60.00,Sunday
14572,67876.58285020158
2,1, 1, 1, 0,11, 0.00,60.00,Sunday
14572,71996.72556501935
2,1, 1, 1, 0,12, 0.00,60.00,Sunday
14572,53600.36863619089
2,1, 1, 1, 0,13, 0.00,60.00,Sunday
14572,43483.89552303413
2,1, 1, 1, 0,14, 0.00,60.00,Sunday
14572,66051.234520571
2,1, 1, 1, 0,15, 0.00,60.00,Sunday
14572,72018.95516708844
2,1, 1, 1, 0,16, 0.00,60.00,Sunday
14572,66131.814984448
2,1, 1, 1, 0,17, 0.00,60.00,Sunday
14572,72445.12969819305
2,1, 1, 1, 0,18, 0.00,60.00,Sunday
14572,87113.10756197611
2,1, 1, 1, 0,19, 0.00,60.00,Sunday
14572,81390.02748309707
2,1, 1, 1, 0,20, 0.00,60.00,Sunday
14572,77847.48536559488
2,1, 1, 1, 0,21, 0.00,60.00,Sunday
14572,102019.57355636652
2,1, 1, 1, 0,22, 0.00,60.00,Sunday
14572,89944.86935401532
2,1, 1, 1, 0,23, 0.00,60.00,Sunday
14572,71627.13462445578
2,1, 1, 1, 0,24, 0.00,60.00,Sunday
14572,56344.241113303564
2,2, 1, 2, 0, 1, 0.00,60.00,Holiday
14572,46581.97649155937
2,2, 1, 2, 0, 2, 0.00,60.00,Holiday
14572,43700.96357513733
2,2, 1, 2, 0, 3, 0.00,60.00,Holiday
14572,42085.03946101627
2,2, 1, 2, 0, 4, 0.00,60.00,Holiday
14572,40912.998503666866
2,2, 1, 2, 0, 5, 0.00,60.00,Holiday
14572,42544.44012313488
2,2, 1, 2, 0, 6, 0.00,60.00,Holiday
14572,49403.7229578742
2,2, 1, 2, 0, 7, 0.00,60.00,Holiday
14572,60202.95399548091
2,2, 1, 2, 0, 8, 0.00,60.00,Holiday
14572,64856.54248668891
2,2, 1, 2, 0, 9, 0.00,60.00,Holiday
14572,65735.67939443704
2,2, 1, 2, 0,10, 0.00,60.00,Holiday
14572,68644.95863728432
2,2, 1, 2, 0,11, 0.00,60.00,Holiday
14572,67692.04814303211
2,2, 1, 2, 0,12, 0.00,60.00,Holiday
14572,43957.34700307988
2,2, 1, 2, 0,13, 0.00,60.00,Holiday
14572,59514.01394343105
2,2, 1, 2, 0,14, 0.00,60.00,Holiday
14572,73490.80847870454
2,2, 1, 2, 0,15, 0.00,60.00,Holiday
14572,72935.04266739577
2,2, 1, 2, 0,16, 0.00,60.00,Holiday
14572,75857.72395618769
2,2, 1, 2, 0,17, 0.00,60.00,Holiday
14572,87421.76651406082
2,2, 1, 2, 0,18, 0.00,60.00,Holiday
14572,81688.60150042176
2,2, 1, 2, 0,19, 0.00,60.00,Holiday
14572,93369.4663030946
2,2, 1, 2, 0,20, 0.00,60.00,Holiday
14572,77847.48536559488
2,2, 1, 2, 0,21, 0.00,60.00,Holiday
14572,86757.00347056251
2,2, 1, 2, 0,22, 0.00,60.00,Holiday
14572,93538.51928781011
2,2, 1, 2, 0,23, 0.00,60.00,Holiday
14572,78835.01651078793
2,2, 1, 2, 0,24, 0.00,60.00,Holiday
14572,63303.66141323573
2,3, 1, 3, 0, 1, 0.00,60.00,Tuesday
14572,50892.78951852725
2,3, 1, 3, 0, 2, 0.00,60.00,Tuesday
14572,46311.305941604674
2,3, 1, 3, 0, 3, 0.00,60.00,Tuesday
14572,43507.21742430811
2,3, 1, 3, 0, 4, 0.00,60.00,Tuesday
14572,41029.87850403476
2,3, 1, 3, 0, 5, 0.00,60.00,Tuesday
14572,42392.88687350123
2,3, 1, 3, 0, 6, 0.00,60.00,Tuesday
14572,49652.39114834345
2,3, 1, 3, 0, 7, 0.00,60.00,Tuesday
14572,60542.22485459943
2,3, 1, 3, 0, 8, 0.00,60.00,Tuesday
14572,63700.379925166446
2,3, 1, 3, 0, 9, 0.00,60.00,Tuesday
14572,65342.852318314886
2,3, 1, 3, 0,10, 0.00,60.00,Tuesday
14572,68465.49600848586
2,3, 1, 3, 0,11, 0.00,60.00,Tuesday
14572,68047.56942328127
2,3, 1, 3, 0,12, 0.00,60.00,Tuesday
14572,44795.51984843643
2,3, 1, 3, 0,13, 0.00,60.00,Tuesday
14572,44035.770270458685
2,3, 1, 3, 0,14, 0.00,60.00,Tuesday
14572,69509.39261930372
2,3, 1, 3, 0,15, 0.00,60.00,Tuesday
14572,64285.87263042349
2,3, 1, 3, 0,16, 0.00,60.00,Tuesday
14572,63170.61661930893
2,3, 1, 3, 0,17, 0.00,60.00,Tuesday
14572,65385.87619215237
2,3, 1, 3, 0,18, 0.00,60.00,Tuesday
14572,81646.99853566595
2,3, 1, 3, 0,19, 0.00,60.00,Tuesday
14572,81390.02748309707
2,3, 1, 3, 0,20, 0.00,60.00,Tuesday
14572,104192.71168048153
2,3, 1, 3, 0,21, 0.00,60.00,Tuesday
14572,98649.74523641978
2,3, 1, 3, 0,22, 0.00,60.00,Tuesday
14572,88215.74472908366
2,3, 1, 3, 0,23, 0.00,60.00,Tuesday
14572,71780.17368593432
2,3, 1, 3, 0,24, 0.00,60.00,Tuesday
14572,57685.425535531744
2,4, 1, 4, 0, 1, 0.00,60.00,Wednesday
14572,47310.09732123958
2,4, 1, 4, 0, 2, 0.00,60.00,Wednesday
14572,42978.371556567385
2,4, 1, 4, 0, 3, 0.00,60.00,Wednesday
14572,40041.94043512325
2,4, 1, 4, 0, 4, 0.00,60.00,Wednesday
14572,38697.79290995812
2,4, 1, 4, 0, 5, 0.00,60.00,Wednesday
14572,40734.13619243428
2,4, 1, 4, 0, 6, 0.00,60.00,Wednesday
14572,47438.56188177106
2,4, 1, 4, 0, 7, 0.00,60.00,Wednesday
14572,57299.19815586548
2,4, 1, 4, 0, 8, 0.00,60.00,Wednesday
14572,61182.50582227012
2,4, 1, 4, 0, 9, 0.00,60.00,Wednesday
14572,63073.0185450527
2,4, 1, 4, 0,10, 0.00,60.00,Wednesday
14572,66327.45827916353
2,4, 1, 4, 0,11, 0.00,60.00,Wednesday
14572,71419.9785278592
2,4, 1, 4, 0,12, 0.00,60.00,Wednesday
14572,60414.45920600364
2,4, 1, 4, 0,13, 0.00,60.00,Wednesday
14572,58168.222780146534
2,4, 1, 4, 0,14, 0.00,60.00,Wednesday
14572,68800.79839510357
2,4, 1, 4, 0,15, 0.00,60.00,Wednesday
14572,50078.397009665874
2,4, 1, 4, 0,16, 0.00,60.00,Wednesday
14572,44956.69845480751
2,4, 1, 4, 0,17, 0.00,60.00,Wednesday
14572,57320.89986069668
2,4, 1, 4, 0,18, 0.00,60.00,Wednesday
14572,75120.26439525149
2,4, 1, 4, 0,19, 0.00,60.00,Wednesday
14572,99282.33724789684
2,4, 1, 4, 0,20, 0.00,60.00,Wednesday
14572,100196.50853201275
2,4, 1, 4, 0,21, 0.00,60.00,Wednesday
14572,96461.68108274194
2,4, 1, 4, 0,22, 0.00,60.00,Wednesday
14572,86709.41056519585
2,4, 1, 4, 0,23, 0.00,60.00,Wednesday
14572,68555.60878682866
2,4, 1, 4, 0,24, 0.00,60.00,Wednesday
14572,52839.6677050413
2,5, 1, 5, 0, 1, 0.00,60.00,Thursday
14572,42066.61298381922
2,5, 1, 5, 0, 2, 0.00,60.00,Thursday
14572,39011.45338683328
2,5, 1, 5, 0, 3, 0.00,60.00,Thursday
14572,37428.00043480797
2,5, 1, 5, 0, 4, 0.00,60.00,Thursday
14572,36556.02336982028
2,5, 1, 5, 0, 5, 0.00,60.00,Thursday
14572,38700.8049809007
2,5, 1, 5, 0, 6, 0.00,60.00,Thursday
14572,45805.921058506014
2,5, 1, 5, 0, 7, 0.00,60.00,Thursday
14572,56203.207079850545
2,5, 1, 5, 0, 8, 0.00,60.00,Thursday
14572,60159.30011766481
2,5, 1, 5, 0, 9, 0.00,60.00,Thursday
14572,61835.44394120637
2,5, 1, 5, 0,10, 0.00,60.00,Thursday
14572,65709.77306260691
2,5, 1, 5, 0,11, 0.00,60.00,Thursday
14572,69230.79999315023
2,5, 1, 5, 0,12, 0.00,60.00,Thursday
14572,55785.30425175425
2,5, 1, 5, 0,13, 0.00,60.00,Thursday
14572,44035.770270458685
2,5, 1, 5, 0,14, 0.00,60.00,Thursday
14572,42902.07421103053
2,5, 1, 5, 0,15, 0.00,60.00,Thursday
14572,57009.687169492456
2,5, 1, 5, 0,16, 0.00,60.00,Thursday
14572,58014.48651086843
2,5, 1, 5, 0,17, 0.00,60.00,Thursday
14572,69079.07560731791
2,5, 1, 5, 0,18, 0.00,60.00,Thursday
14572,78884.62916174906
2,5, 1, 5, 0,19, 0.00,60.00,Thursday
14572,81390.02748309707
2,5, 1, 5, 0,20, 0.00,60.00,Thursday
14572,86118.58536715884
2,5, 1, 5, 0,21, 0.00,60.00,Thursday
14572,97635.5407586462
2,5, 1, 5, 0,22, 0.00,60.00,Thursday
14572,88821.76893225928
2,5, 1, 5, 0,23, 0.00,60.00,Thursday
14572,72453.73462553907
2,5, 1, 5, 0,24, 0.00,60.00,Thursday
14572,58202.46062058506
2,6, 1, 6, 0, 1, 0.00,60.00,Friday
14572,47054.862443716804
2,6, 1, 6, 0, 2, 0.00,60.00,Friday
14572,43468.35002612738
2,6, 1, 6, 0, 3, 0.00,60.00,Friday
14572,41354.77964633335
2,6, 1, 6, 0, 4, 0.00,60.00,Friday
14572,39866.00141009566
2,6, 1, 6, 0, 5, 0.00,60.00,Friday
14572,41715.719058704155
2,6, 1, 6, 0, 6, 0.00,60.00,Friday
14572,48717.11001389233
2,6, 1, 6, 0, 7, 0.00,60.00,Friday
14572,59689.04886878635
2,6, 1, 6, 0, 8, 0.00,60.00,Friday
14572,60700.42768096651
2,6, 1, 6, 0, 9, 0.00,60.00,Friday
14572,60144.929981449044
2,6, 1, 6, 0,10, 0.00,60.00,Friday
14572,63691.627546315096
2,6, 1, 6, 0,11, 0.00,60.00,Friday
14572,67479.7249204066
2,6, 1, 6, 0,12, 0.00,60.00,Friday
14572,70621.44731892197
2,6, 1, 6, 0,13, 0.00,60.00,Friday
14572,47825.10355515292
2,6, 1, 6, 0,14, 0.00,60.00,Friday
14572,42902.07421103053
2,6, 1, 6, 0,15, 0.00,60.00,Friday
14572,42236.30340379876
2,6, 1, 6, 0,16, 0.00,60.00,Friday
14572,44956.69845480751
2,6, 1, 6, 0,17, 0.00,60.00,Friday
14572,57320.89986069668
2,6, 1, 6, 0,18, 0.00,60.00,Friday
14572,75120.26439525149
2,6, 1, 6, 0,19, 0.00,60.00,Friday
14572,81390.02748309707
2,6, 1, 6, 0,20, 0.00,60.00,Friday
14572,83867.36842137366
2,6, 1, 6, 0,21, 0.00,60.00,Friday
14572,90214.74704832758
2,6, 1, 6, 0,22, 0.00,60.00,Friday
14572,82751.33548618725
2,6, 1, 6, 0,23, 0.00,60.00,Friday
14572,67953.2325569113
2,6, 1, 6, 0,24, 0.00,60.00,Friday
14572,54889.3824214859
2,7, 1, 7, 0, 1, 0.00,60.00,Saturday
14572,44399.23623325082
2,7, 1, 7, 0, 2, 0.00,60.00,Saturday
14572,40313.43670481669
2,7, 1, 7, 0, 3, 0.00,60.00,Saturday
14572,38372.44774659119
2,7, 1, 7, 0, 4, 0.00,60.00,Saturday
14572,37283.51345102511
2,7, 1, 7, 0, 5, 0.00,60.00,Saturday
14572,39392.514826883445
2,7, 1, 7, 0, 6, 0.00,60.00,Saturday
14572,46908.75373994172
2,7, 1, 7, 0, 7, 0.00,60.00,Saturday
14572,57565.94262073848
2,7, 1, 7, 0, 8, 0.00,60.00,Saturday
14572,61487.954218826526
2,7, 1, 7, 0, 9, 0.00,60.00,Saturday
14572,61566.38226588621
2,7, 1, 7, 0,10, 0.00,60.00,Saturday
14572,64545.71331101506
2,7, 1, 7, 0,11, 0.00,60.00,Saturday
14572,67145.38582534168
2,7, 1, 7, 0,12, 0.00,60.00,Saturday
14572,70119.07768923455
2,7, 1, 7, 0,13, 0.00,60.00,Saturday
14572,72244.11417981444
2,7, 1, 7, 0,14, 0.00,60.00,Saturday
14572,52516.188596055195
2,7, 1, 7, 0,15, 0.00,60.00,Saturday
14572,41591.5817284136
2,7, 1, 7, 0,16, 0.00,60.00,Saturday
14572,59572.21105744418
2,7, 1, 7, 0,17, 0.00,60.00,Saturday
14572,62851.7946820404
2,7, 1, 7, 0,18, 0.00,60.00,Saturday
14572,87264.37786292932
2,7, 1, 7, 0,19, 0.00,60.00,Saturday
14572,81390.02748309707
2,7, 1, 7, 0,20, 0.00,60.00,Saturday
14572,86049.07251066438
2,7, 1, 7, 0,21, 0.00,60.00,Saturday
14572,97382.15458529639
2,7, 1, 7, 0,22, 0.00,60.00,Saturday
14572,88154.73737999013
2,7, 1, 7, 0,23, 0.00,60.00,Saturday
14572,71940.33453352205
2,7, 1, 7, 0,24, 0.00,60.00,Saturday
14572,57628.701442355195
2,8, 1, 8, 0, 1, 0.00,60.00,Sunday
14572,45737.249136612314
2,8, 1, 8, 0, 2, 0.00,60.00,Sunday
14572,42081.95138684835
2,8, 1, 8, 0, 3, 0.00,60.00,Sunday
14572,40988.29431758285
2,8, 1, 8, 0, 4, 0.00,60.00,Sunday
14572,39849.13620177142
2,8, 1, 8, 0, 5, 0.00,60.00,Sunday
14572,41676.08035521755
2,8, 1, 8, 0, 6, 0.00,60.00,Sunday
14572,48154.361181274464
2,8, 1, 8, 0, 7, 0.00,60.00,Sunday
14572,58026.16276395301
2,8, 1, 8, 0, 8, 0.00,60.00,Sunday
14572,60731.92049500765
2,8, 1, 8, 0, 9, 0.00,60.00,Sunday
14572,59296.31877837375
2,8, 1, 8, 0,10, 0.00,60.00,Sunday
14572,62654.81528461927
2,8, 1, 8, 0,11, 0.00,60.00,Sunday
14572,67035.44832690567
2,8, 1, 8, 0,12, 0.00,60.00,Sunday
14572,71661.42120340753
2,8, 1, 8, 0,13, 0.00,60.00,Sunday
14572,60082.269954473486
2,8, 1, 8, 0,14, 0.00,60.00,Sunday
14572,42064.43866848472
2,8, 1, 8, 0,15, 0.00,60.00,Sunday
14572,41591.5817284136
2,8, 1, 8, 0,16, 0.00,60.00,Sunday
14572,57441.60503865655
2,8, 1, 8, 0,17, 0.00,60.00,Sunday
14572,61476.5157597746
2,8, 1, 8, 0,18, 0.00,60.00,Sunday
14572,75052.0158189969
2,8, 1, 8, 0,19, 0.00,60.00,Sunday
14572,81390.02748309707
2,8, 1, 8, 0,20, 0.00,60.00,Sunday
14572,101845.85784922671
2,8, 1, 8, 0,21, 0.00,60.00,Sunday
14572,96772.7604461714
2,8, 1, 8, 0,22, 0.00,60.00,Sunday
14572,86368.68321381434
2,8, 1, 8, 0,23, 0.00,60.00,Sunday
14572,70227.24800184471
2,8, 1, 8, 0,24, 0.00,60.00,Sunday
14572,56173.66528970162
2,9, 1, 9, 0, 1, 0.00,60.00,Monday
14572,44998.08575395868
2,9, 1, 9, 0, 2, 0.00,60.00,Monday
14572,41450.47101662944
2,9, 1, 9, 0, 3, 0.00,60.00,Monday
14572,39497.51275448664
2,9, 1, 9, 0, 4, 0.00,60.00,Monday
14572,38204.23422922396
2,9, 1, 9, 0, 5, 0.00,60.00,Monday
14572,40146.43330100169
2,9, 1, 9, 0, 6, 0.00,60.00,Monday
14572,47112.47581293181
2,9, 1, 9, 0, 7, 0.00,60.00,Monday
14572,56992.22768508633
2,9, 1, 9, 0, 8, 0.00,60.00,Monday
14572,60076.0061893066
2,9, 1, 9, 0, 9, 0.00,60.00,Monday
14572,61444.33838621421
2,9, 1, 9, 0,10, 0.00,60.00,Monday
14572,65039.37452153404
2,9, 1, 9, 0,11, 0.00,60.00,Monday
14572,68311.68409473915
2,9, 1, 9, 0,12, 0.00,60.00,Monday
14572,62529.935728066564
2,9, 1, 9, 0,13, 0.00,60.00,Monday
14572,44035.770270458685
2,9, 1, 9, 0,14, 0.00,60.00,Monday
14572,51375.25809355085
2,9, 1, 9, 0,15, 0.00,60.00,Monday
14572,62652.986347734535
2,9, 1, 9, 0,16, 0.00,60.00,Monday
14572,61349.635322375965
2,9, 1, 9, 0,17, 0.00,60.00,Monday
14572,70988.05892764623
2,9, 1, 9, 0,18, 0.00,60.00,Monday
14572,84173.05096186021
2,9, 1, 9, 0,19, 0.00,60.00,Monday
14572,83828.19385527432
2,9, 1, 9, 0,20, 0.00,60.00,Monday
14572,85399.5945968175
2,9, 1, 9, 0,21, 0.00,60.00,Monday
14572,96362.30704499372
2,9, 1, 9, 0,22, 0.00,60.00,Monday
14572,87333.22176745582
2,9, 1, 9, 0,23, 0.00,60.00,Monday
14572,71728.72184921934
2,9, 1, 9, 0,24, 0.00,60.00,Monday
14572,57701.67060466849
2,10, 1,10, 0, 1, 0.00,60.00,Tuesday
14572,46253.89681973705
2,10, 1,10, 0, 2, 0.00,60.00,Tuesday
14572,42561.138153034844
2,10, 1,10, 0, 3, 0.00,60.00,Tuesday
14572,40399.24084978276
2,10, 1,10, 0, 4, 0.00,60.00,Tuesday
14572,38406.12224074417
2,10, 1,10, 0, 5, 0.00,60.00,Tuesday
14572,40191.487194259425
2,10, 1,10, 0, 6, 0.00,60.00,Tuesday
14572,47216.94201334262
2,10, 1,10, 0, 7, 0.00,60.00,Tuesday
14572,57713.82150680016
2,10, 1,10, 0, 8, 0.00,60.00,Tuesday
14572,61542.096359606105
2,10, 1,10, 0, 9, 0.00,60.00,Tuesday
14572,63433.69142031049
2,10, 1,10, 0,10, 0.00,60.00,Tuesday
14572,66622.3502663823
2,10, 1,10, 0,11, 0.00,60.00,Tuesday
14572,69728.79816676579
2,10, 1,10, 0,12, 0.00,60.00,Tuesday
14572,72903.41027428594
2,10, 1,10, 0,13, 0.00,60.00,Tuesday
14572,46993.534453794506
2,10, 1,10, 0,14, 0.00,60.00,Tuesday
14572,58053.004714996845
2,10, 1,10, 0,15, 0.00,60.00,Tuesday
14572,70581.39992422785
2,10, 1,10, 0,16, 0.00,60.00,Tuesday
14572,72761.42787551857
2,10, 1,10, 0,17, 0.00,60.00,Tuesday
14572,63861.94052149063
2,10, 1,10, 0,18, 0.00,60.00,Tuesday
14572,88677.20280695858
2,10, 1,10, 0,19, 0.00,60.00,Tuesday
14572,81390.02748309707
2,10, 1,10, 0,20, 0.00,60.00,Tuesday
14572,85474.10254560874
2,10, 1,10, 0,21, 0.00,60.00,Tuesday
14572,96596.91901856923
2,10, 1,10, 0,22, 0.00,60.00,Tuesday
14572,89321.97499932226
2,10, 1,10, 0,23, 0.00,60.00,Tuesday
14572,73648.35615259424
2,10, 1,10, 0,24, 0.00,60.00,Tuesday
14572,58341.89136871455
2,11, 1,11, 0, 1, 0.00,60.00,Wednesday
14572,47328.79329222723
2,11, 1,11, 0, 2, 0.00,60.00,Wednesday
14572,43806.5069550335
2,11, 1,11, 0, 3, 0.00,60.00,Wednesday
14572,41261.78207840014
2,11, 1,11, 0, 4, 0.00,60.00,Wednesday
14572,39868.25768916481
2,11, 1,11, 0, 5, 0.00,60.00,Wednesday
14572,41800.267868167415
2,11, 1,11, 0, 6, 0.00,60.00,Wednesday
14572,48634.84863448245
2,11, 1,11, 0, 7, 0.00,60.00,Wednesday
14572,58974.146935784
2,11, 1,11, 0, 8, 0.00,60.00,Wednesday
14572,63419.01571044985
2,11, 1,11, 0, 9, 0.00,60.00,Wednesday
14572,64965.21497417911
2,11, 1,11, 0,10, 0.00,60.00,Wednesday
14572,68013.13235893945
2,11, 1,11, 0,11, 0.00,60.00,Wednesday
14572,67699.86936420812
2,11, 1,11, 0,12, 0.00,60.00,Wednesday
14572,44795.51984843643
2,11, 1,11, 0,13, 0.00,60.00,Wednesday
14572,52970.295032813316
2,11, 1,11, 0,14, 0.00,60.00,Wednesday
14572,74461.87369037204
2,11, 1,11, 0,15, 0.00,60.00,Wednesday
14572,73094.43115920018
2,11, 1,11, 0,16, 0.00,60.00,Wednesday
14572,74218.44524773743
2,11, 1,11, 0,17, 0.00,60.00,Wednesday
14572,83293.24160945203
2,11, 1,11, 0,18, 0.00,60.00,Wednesday
14572,75120.26439525149
2,11, 1,11, 0,19, 0.00,60.00,Wednesday
14572,89886.28770160631
2,11, 1,11, 0,20, 0.00,60.00,Wednesday
14572,77847.48536559488
2,11, 1,11, 0,21, 0.00,60.00,Wednesday
14572,89059.96071988707
2,11, 1,11, 0,22, 0.00,60.00,Wednesday
14572,92947.65297247624
2,11, 1,11, 0,23, 0.00,60.00,Wednesday
14572,76338.24850382263
2,11, 1,11, 0,24, 0.00,60.00,Wednesday
14572,60650.322705406834
2,12, 1,12, 0, 1, 0.00,60.00,Thursday
14572,49024.20988691802
2,12, 1,12, 0, 2, 0.00,60.00,Thursday
14572,45481.06490550418
2,12, 1,12, 0, 3, 0.00,60.00,Thursday
14572,43126.01171960903
2,12, 1,12, 0, 4, 0.00,60.00,Thursday
14572,41763.876642667296
2,12, 1,12, 0, 5, 0.00,60.00,Thursday
14572,43534.99550335853
2,12, 1,12, 0, 6, 0.00,60.00,Thursday
14572,50357.840196772166
2,12, 1,12, 0, 7, 0.00,60.00,Thursday
14572,61301.83158912502
2,12, 1,12, 0, 8, 0.00,60.00,Thursday
14572,65745.24799269385
2,12, 1,12, 0, 9, 0.00,60.00,Thursday
14572,67341.0829524352
2,12, 1,12, 0,10, 0.00,60.00,Thursday
14572,71981.49231961592
2,12, 1,12, 0,11, 0.00,60.00,Thursday
14572,74872.3779080897
2,12, 1,12, 0,12, 0.00,60.00,Thursday
14572,46302.566429020364
2,12, 1,12, 0,13, 0.00,60.00,Thursday
14572,52842.263420410345
2,12, 1,12, 0,14, 0.00,60.00,Thursday
14572,73296.34220354001
2,12, 1,12, 0,15, 0.00,60.00,Thursday
14572,73965.6949347351
2,12, 1,12, 0,16, 0.00,60.00,Thursday
14572,76919.23200624062
2,12, 1,12, 0,17, 0.00,60.00,Thursday
14572,86065.59305511262
2,12, 1,12, 0,18, 0.00,60.00,Thursday
14572,75120.26439525149
2,12, 1,12, 0,19, 0.00,60.00,Thursday
14572,94927.05614214999
2,12, 1,12, 0,20, 0.00,60.00,Thursday
14572,77847.48536559488
2,12, 1,12, 0,21, 0.00,60.00,Thursday
14572,75939.48470625635
2,12, 1,12, 0,22, 0.00,60.00,Thursday
14572,95212.76011806069
2,12, 1,12, 0,23, 0.00,60.00,Thursday
14572,79667.19756215846
2,12, 1,12, 0,24, 0.00,60.00,Thursday
14572,63319.35438069164
2,13, 1,13, 0, 1, 0.00,60.00,Friday
14572,49221.48300309374
2,13, 1,13, 0, 2, 0.00,60.00,Friday
14572,45586.20166505526
2,13, 1,13, 0, 3, 0.00,60.00,Friday
14572,43416.107429891024
2,13, 1,13, 0, 4, 0.00,60.00,Friday
14572,41833.506856991786
2,13, 1,13, 0, 5, 0.00,60.00,Friday
14572,42518.7452193294
2,13, 1,13, 0, 6, 0.00,60.00,Friday
14572,48895.2014773267
2,13, 1,13, 0, 7, 0.00,60.00,Friday
14572,60467.25489014029
2,13, 1,13, 0, 8, 0.00,60.00,Friday
14572,67245.39236463391
2,13, 1,13, 0, 9, 0.00,60.00,Friday
14572,71278.1604234397
2,13, 1,13, 0,10, 0.00,60.00,Friday
14572,74265.06500753376
2,13, 1,13, 0,11, 0.00,60.00,Friday
14572,62530.87448160375
2,13, 1,13, 0,12, 0.00,60.00,Friday
14572,44795.51984843643
2,13, 1,13, 0,13, 0.00,60.00,Friday
14572,76114.87865691834
2,13, 1,13, 0,14, 0.00,60.00,Friday
14572,75484.4372424835
2,13, 1,13, 0,15, 0.00,60.00,Friday
14572,74501.84723564703
2,13, 1,13, 0,16, 0.00,60.00,Friday
14572,76292.33117591651
2,13, 1,13, 0,17, 0.00,60.00,Friday
14572,85466.90250205253
2,13, 1,13, 0,18, 0.00,60.00,Friday
14572,81205.28249481428
2,13, 1,13, 0,19, 0.00,60.00,Friday
14572,94685.01260316382
2,13, 1,13, 0,20, 0.00,60.00,Friday
14572,80903.59368897865
2,13, 1,13, 0,21, 0.00,60.00,Friday
14572,75939.48470625635
2,13, 1,13, 0,22, 0.00,60.00,Friday
14572,68296.81387271616
2,13, 1,13, 0,23, 0.00,60.00,Friday
14572,67508.06053946499
2,13, 1,13, 0,24, 0.00,60.00,Friday
14572,63402.014459396465
2,14, 1,14, 0, 1, 0.00,60.00,Saturday
14572,49653.38208851348
2,14, 1,14, 0, 2, 0.00,60.00,Saturday
14572,44963.097912611294
2,14, 1,14, 0, 3, 0.00,60.00,Saturday
14572,42408.06508725916
2,14, 1,14, 0, 4, 0.00,60.00,Saturday
14572,40623.24537710268
2,14, 1,14, 0, 5, 0.00,60.00,Saturday
14572,42103.31590593085
2,14, 1,14, 0, 6, 0.00,60.00,Saturday
14572,48709.12932761929
2,14, 1,14, 0, 7, 0.00,60.00,Saturday
14572,58916.19444851112
2,14, 1,14, 0, 8, 0.00,60.00,Saturday
14572,62883.0946683559
2,14, 1,14, 0, 9, 0.00,60.00,Saturday
14572,64024.68498515089
2,14, 1,14, 0,10, 0.00,60.00,Saturday
14572,67199.7070630683
2,14, 1,14, 0,11, 0.00,60.00,Saturday
14572,69605.8023103613
2,14, 1,14, 0,12, 0.00,60.00,Saturday
14572,72614.15857452858
2,14, 1,14, 0,13, 0.00,60.00,Saturday
14572,46016.06574772583
2,14, 1,14, 0,14, 0.00,60.00,Saturday
14572,50726.803961425816
2,14, 1,14, 0,15, 0.00,60.00,Saturday
14572,69420.48038950452
2,14, 1,14, 0,16, 0.00,60.00,Saturday
14572,68470.59965850877
2,14, 1,14, 0,17, 0.00,60.00,Saturday
14572,61908.046385908936
2,14, 1,14, 0,18, 0.00,60.00,Saturday
14572,81546.24644555825
2,14, 1,14, 0,19, 0.00,60.00,Saturday
14572,94362.70465274507
2,14, 1,14, 0,20, 0.00,60.00,Saturday
14572,100272.46823787552
2,14, 1,14, 0,21, 0.00,60.00,Saturday
14572,95909.08803089129
2,14, 1,14, 0,22, 0.00,60.00,Saturday
14572,85560.67005405966
2,14, 1,14, 0,23, 0.00,60.00,Saturday
14572,68968.14561453857
2,14, 1,14, 0,24, 0.00,60.00,Saturday
14572,55221.08354641571
2,15, 1,15, 0, 1, 0.00,60.00,Sunday
14572,44095.64301771053
2,15, 1,15, 0, 2, 0.00,60.00,Sunday
14572,40589.551140661104
2,15, 1,15, 0, 3, 0.00,60.00,Sunday
14572,38751.53875192826
2,15, 1,15, 0, 4, 0.00,60.00,Sunday
14572,37521.06495217145
2,15, 1,15, 0, 5, 0.00,60.00,Sunday
14572,39677.03570016142
2,15, 1,15, 0, 6, 0.00,60.00,Sunday
14572,46751.02999177027
2,15, 1,15, 0, 7, 0.00,60.00,Sunday
14572,56655.417511320215
2,15, 1,15, 0, 8, 0.00,60.00,Sunday
14572,59480.03891182456
2,15, 1,15, 0, 9, 0.00,60.00,Sunday
14572,58531.284239351284
2,15, 1,15, 0,10, 0.00,60.00,Sunday
14572,60993.83639952847
2,15, 1,15, 0,11, 0.00,60.00,Sunday
14572,64208.51562389281
2,15, 1,15, 0,12, 0.00,60.00,Sunday
14572,68238.09826603031
2,15, 1,15, 0,13, 0.00,60.00,Sunday
14572,65761.82385238846
2,15, 1,15, 0,14, 0.00,60.00,Sunday
14572,42064.43866848472
2,15, 1,15, 0,15, 0.00,60.00,Sunday
14572,41591.5817284136
2,15, 1,15, 0,16, 0.00,60.00,Sunday
14572,44118.79579935892
2,15, 1,15, 0,17, 0.00,60.00,Sunday
14572,56481.302718456354
2,15, 1,15, 0,18, 0.00,60.00,Sunday
14572,75052.0158189969
2,15, 1,15, 0,19, 0.00,60.00,Sunday
14572,104150.86749959398
2,15, 1,15, 0,20, 0.00,60.00,Sunday
14572,97784.71618570607
2,15, 1,15, 0,21, 0.00,60.00,Sunday
14572,94069.1396361801
2,15, 1,15, 0,22, 0.00,60.00,Sunday
14572,85394.17047526399
2,15, 1,15, 0,23, 0.00,60.00,Sunday
14572,70052.37162063253
2,15, 1,15, 0,24, 0.00,60.00,Sunday
14572,55939.34710278498
2,16, 1,16, 0, 1, 0.00,60.00,Holiday
14572,45111.10338405898
2,16, 1,16, 0, 2, 0.00,60.00,Holiday
14572,41804.26515383886
2,16, 1,16, 0, 3, 0.00,60.00,Holiday
14572,39733.34453555195
2,16, 1,16, 0, 4, 0.00,60.00,Holiday
14572,38141.92539195618
2,16, 1,16, 0, 5, 0.00,60.00,Holiday
14572,40214.60812593684
2,16, 1,16, 0, 6, 0.00,60.00,Holiday
14572,47443.3459660546
2,16, 1,16, 0, 7, 0.00,60.00,Holiday
14572,57854.63093673441
2,16, 1,16, 0, 8, 0.00,60.00,Holiday
14572,61168.721463886046
2,16, 1,16, 0, 9, 0.00,60.00,Holiday
14572,60114.240875823874
2,16, 1,16, 0,10, 0.00,60.00,Holiday
14572,64304.74347769159
2,16, 1,16, 0,11, 0.00,60.00,Holiday
14572,67747.45648152629
2,16, 1,16, 0,12, 0.00,60.00,Holiday
14572,57953.28600873645
2,16, 1,16, 0,13, 0.00,60.00,Holiday
14572,43483.89552303413
2,16, 1,16, 0,14, 0.00,60.00,Holiday
14572,42064.43866848472
2,16, 1,16, 0,15, 0.00,60.00,Holiday
14572,49974.601036861815
2,16, 1,16, 0,16, 0.00,60.00,Holiday
14572,54996.12302684457
2,16, 1,16, 0,17, 0.00,60.00,Holiday
14572,66568.50219863943
2,16, 1,16, 0,18, 0.00,60.00,Holiday
14572,79025.66027320473
2,16, 1,16, 0,19, 0.00,60.00,Holiday
14572,81390.02748309707
2,16, 1,16, 0,20, 0.00,60.00,Holiday
14572,77847.48536559488
2,16, 1,16, 0,21, 0.00,60.00,Holiday
14572,95442.21045008063
2,16, 1,16, 0,22, 0.00,60.00,Holiday
14572,86927.59750893457
2,16, 1,16, 0,23, 0.00,60.00,Holiday
14572,70851.13549640638
2,16, 1,16, 0,24, 0.00,60.00,Holiday
14572,56402.14457617906
2,17, 1,17, 0, 1, 0.00,60.00,Tuesday
14572,45250.226262460914
2,17, 1,17, 0, 2, 0.00,60.00,Tuesday
14572,41771.765357806005
2,17, 1,17, 0, 3, 0.00,60.00,Tuesday
14572,39941.9885629004
2,17, 1,17, 0, 4, 0.00,60.00,Tuesday
14572,38397.97486842999
2,17, 1,17, 0, 5, 0.00,60.00,Tuesday
14572,40331.14306445987
2,17, 1,17, 0, 6, 0.00,60.00,Tuesday
14572,47319.444999367464
2,17, 1,17, 0, 7, 0.00,60.00,Tuesday
14572,57639.17741367293
2,17, 1,17, 0, 8, 0.00,60.00,Tuesday
14572,61746.56467891546
2,17, 1,17, 0, 9, 0.00,60.00,Tuesday
14572,64356.70466178699
2,17, 1,17, 0,10, 0.00,60.00,Tuesday
14572,70058.78266383115
2,17, 1,17, 0,11, 0.00,60.00,Tuesday
14572,67855.10912851783
2,17, 1,17, 0,12, 0.00,60.00,Tuesday
14572,44795.51984843643
2,17, 1,17, 0,13, 0.00,60.00,Tuesday
14572,62424.53435023231
2,17, 1,17, 0,14, 0.00,60.00,Tuesday
14572,49394.51164221317
2,17, 1,17, 0,15, 0.00,60.00,Tuesday
14572,74380.87643439739
2,17, 1,17, 0,16, 0.00,60.00,Tuesday
14572,75552.2708736396
2,17, 1,17, 0,17, 0.00,60.00,Tuesday
14572,77879.84829311667
2,17, 1,17, 0,18, 0.00,60.00,Tuesday
14572,82462.83963463265
2,17, 1,17, 0,19, 0.00,60.00,Tuesday
14572,86653.43712236843
2,17, 1,17, 0,20, 0.00,60.00,Tuesday
14572,77847.48536559488
2,17, 1,17, 0,21, 0.00,60.00,Tuesday
14572,100600.47640948408
2,17, 1,17, 0,22, 0.00,60.00,Tuesday
14572,91957.51820926835
2,17, 1,17, 0,23, 0.00,60.00,Tuesday
14572,75028.26058520883
2,17, 1,17, 0,24, 0.00,60.00,Tuesday
14572,59578.06238401911
2,18, 1,18, 0, 1, 0.00,60.00,Wednesday
14572,48224.810192049714
2,18, 1,18, 0, 2, 0.00,60.00,Wednesday
14572,44187.483112291324
2,18, 1,18, 0, 3, 0.00,60.00,Wednesday
14572,41476.097507750725
2,18, 1,18, 0, 4, 0.00,60.00,Wednesday
14572,39850.316783827904
2,18, 1,18, 0, 5, 0.00,60.00,Wednesday
14572,40895.485608410265
2,18, 1,18, 0, 6, 0.00,60.00,Wednesday
14572,48105.71569322981
2,18, 1,18, 0, 7, 0.00,60.00,Wednesday
14572,57757.3614799329
2,18, 1,18, 0, 8, 0.00,60.00,Wednesday
14572,61217.36308004832
2,18, 1,18, 0, 9, 0.00,60.00,Wednesday
14572,62757.95794483273
2,18, 1,18, 0,10, 0.00,60.00,Wednesday
14572,68089.17065367827
2,18, 1,18, 0,11, 0.00,60.00,Wednesday
14572,72012.59321080716
2,18, 1,18, 0,12, 0.00,60.00,Wednesday
14572,46584.1622111685
2,18, 1,18, 0,13, 0.00,60.00,Wednesday
14572,44035.770270458685
2,18, 1,18, 0,14, 0.00,60.00,Wednesday
14572,42902.07421103053
2,18, 1,18, 0,15, 0.00,60.00,Wednesday
14572,71944.40355318769
2,18, 1,18, 0,16, 0.00,60.00,Wednesday
14572,73307.30321952127
2,18, 1,18, 0,17, 0.00,60.00,Wednesday
14572,64189.91724715158
2,18, 1,18, 0,18, 0.00,60.00,Wednesday
14572,91655.31048455935
2,18, 1,18, 0,19, 0.00,60.00,Wednesday
14572,81390.02748309707
2,18, 1,18, 0,20, 0.00,60.00,Wednesday
14572,77847.48536559488
2,18, 1,18, 0,21, 0.00,60.00,Wednesday
14572,88651.15259592808
2,18, 1,18, 0,22, 0.00,60.00,Wednesday
14572,92170.3624881364
2,18, 1,18, 0,23, 0.00,60.00,Wednesday
14572,74754.15927353055
2,18, 1,18, 0,24, 0.00,60.00,Wednesday
14572,59512.59078160472
2,19, 1,19, 0, 1, 0.00,60.00,Thursday
14572,48571.94314816891
2,19, 1,19, 0, 2, 0.00,60.00,Thursday
14572,44982.0733299003
2,19, 1,19, 0, 3, 0.00,60.00,Thursday
14572,42377.59994697312
2,19, 1,19, 0, 4, 0.00,60.00,Thursday
14572,40224.75608371728
2,19, 1,19, 0, 5, 0.00,60.00,Thursday
14572,41833.442898625086
2,19, 1,19, 0, 6, 0.00,60.00,Thursday
14572,48914.38717747873
2,19, 1,19, 0, 7, 0.00,60.00,Thursday
14572,59475.08744629424
2,19, 1,19, 0, 8, 0.00,60.00,Thursday
14572,63351.71158674314
2,19, 1,19, 0, 9, 0.00,60.00,Thursday
14572,67076.30419105032
2,19, 1,19, 0,10, 0.00,60.00,Thursday
14572,71314.15939327775
2,19, 1,19, 0,11, 0.00,60.00,Thursday
14572,68407.13604872671
2,19, 1,19, 0,12, 0.00,60.00,Thursday
14572,44795.51984843643
2,19, 1,19, 0,13, 0.00,60.00,Thursday
14572,44035.770270458685
2,19, 1,19, 0,14, 0.00,60.00,Thursday
14572,76715.694530462
2,19, 1,19, 0,15, 0.00,60.00,Thursday
14572,75781.37347637596
2,19, 1,19, 0,16, 0.00,60.00,Thursday
14572,78939.17624477002
2,19, 1,19, 0,17, 0.00,60.00,Thursday
14572,89875.08638404222
2,19, 1,19, 0,18, 0.00,60.00,Thursday
14572,80200.24417968157
2,19, 1,19, 0,19, 0.00,60.00,Thursday
14572,98149.56719668632
2,19, 1,19, 0,20, 0.00,60.00,Thursday
14572,81694.38643003385
2,19, 1,19, 0,21, 0.00,60.00,Thursday
14572,78823.15432183932
2,19, 1,19, 0,22, 0.00,60.00,Thursday
14572,98240.69576104352
2,19, 1,19, 0,23, 0.00,60.00,Thursday
14572,79973.34015294326
2,19, 1,19, 0,24, 0.00,60.00,Thursday
14572,65311.6808229191
2,20, 1,20, 0, 1, 0.00,60.00,Friday
14572,51727.68541490752
2,20, 1,20, 0, 2, 0.00,60.00,Friday
14572,47319.573516785844
2,20, 1,20, 0, 3, 0.00,60.00,Friday
14572,45455.14283554711
2,20, 1,20, 0, 4, 0.00,60.00,Friday
14572,43575.646185568745
2,20, 1,20, 0, 5, 0.00,60.00,Friday
14572,44674.06902118887
2,20, 1,20, 0, 6, 0.00,60.00,Friday
14572,51847.37633086761
2,20, 1,20, 0, 7, 0.00,60.00,Friday
14572,63582.9400895189
2,20, 1,20, 0, 8, 0.00,60.00,Friday
14572,69046.82470558473
2,20, 1,20, 0, 9, 0.00,60.00,Friday